 # Fcc Al oriented X=[100] Y=[010] Z=[001].
xy xz yz
         4  atoms
         1  atom types
      0.00000000      4.24000000  xlo xhi
      0.00000000      4.24000000  ylo yhi
      0.00000000      4.24000000  zlo zhi
 
Atoms
 
         1    1        0.00000000       0.00000000       0.00000000
         2    1        2.12000000       2.12000000       0.00000000
         3    1        0.00000000       2.12000000       2.12000000
         4    1        2.12000000       0.00000000       2.12000000
