 # Fcc Cu oriented X=[100], Y=[010], Z=[001].
 
         531  atoms
           4  atom types
 
      0.00000000     135.00000000  xlo xhi
      0.00000000     135.00000000  ylo yhi
      0.00000000     135.00000000  zlo zhi
 
Atoms
 
         1    2       63.00000000      60.75000000      56.25000000
         2    2       67.50000000      60.75000000      56.25000000
         3    2       72.00000000      60.75000000      56.25000000
         4    2       60.75000000      63.00000000      56.25000000
         5    2       65.25000000      65.25000000      54.00000000
         6    2       63.00000000      65.25000000      56.25000000
         7    2       65.25000000      63.00000000      56.25000000
         8    2       69.75000000      65.25000000      54.00000000
         9    2       67.50000000      65.25000000      56.25000000
        10    2       69.75000000      63.00000000      56.25000000
        11    2       72.00000000      65.25000000      56.25000000
        12    2       74.25000000      63.00000000      56.25000000
        13    2       60.75000000      67.50000000      56.25000000
        14    2       65.25000000      69.75000000      54.00000000
        15    2       63.00000000      69.75000000      56.25000000
        16    2       65.25000000      67.50000000      56.25000000
        17    2       67.50000000      67.50000000      54.00000000
        18    2       69.75000000      69.75000000      54.00000000
        19    2       67.50000000      69.75000000      56.25000000
        20    2       69.75000000      67.50000000      56.25000000
        21    3       72.00000000      69.75000000      56.25000000
        22    3       74.25000000      67.50000000      56.25000000
        23    3       60.75000000      72.00000000      56.25000000
        24    3       63.00000000      74.25000000      56.25000000
        25    3       65.25000000      72.00000000      56.25000000
        26    3       67.50000000      74.25000000      56.25000000
        27    3       69.75000000      72.00000000      56.25000000
        28    3       72.00000000      74.25000000      56.25000000
        29    3       74.25000000      72.00000000      56.25000000
        30    3       63.00000000      56.25000000      60.75000000
        31    3       67.50000000      56.25000000      60.75000000
        32    3       72.00000000      56.25000000      60.75000000
        33    3       60.75000000      60.75000000      58.50000000
        34    3       58.50000000      60.75000000      60.75000000
        35    3       60.75000000      58.50000000      60.75000000
        36    3       63.00000000      58.50000000      58.50000000
        37    3       65.25000000      60.75000000      58.50000000
        38    3       63.00000000      60.75000000      60.75000000
        39    3       65.25000000      58.50000000      60.75000000
        40    3       67.50000000      58.50000000      58.50000000
        41    4       69.75000000      60.75000000      58.50000000
        42    4       67.50000000      60.75000000      60.75000000
        43    4       69.75000000      58.50000000      60.75000000
        44    4       72.00000000      58.50000000      58.50000000
        45    4       74.25000000      60.75000000      58.50000000
        46    4       72.00000000      60.75000000      60.75000000
        47    4       74.25000000      58.50000000      60.75000000
        48    4       76.50000000      60.75000000      60.75000000
        49    4       56.25000000      63.00000000      60.75000000
        50    4       58.50000000      63.00000000      58.50000000
        51    4       60.75000000      65.25000000      58.50000000
        52    4       58.50000000      65.25000000      60.75000000
        53    4       60.75000000      63.00000000      60.75000000
        54    4       63.00000000      63.00000000      58.50000000
        55    4       65.25000000      65.25000000      58.50000000
        56    4       63.00000000      65.25000000      60.75000000
        57    4       65.25000000      63.00000000      60.75000000
        58    4       67.50000000      63.00000000      58.50000000
        59    4       69.75000000      65.25000000      58.50000000
        60    4       67.50000000      65.25000000      60.75000000
        61    1       69.75000000      63.00000000      60.75000000
        62    1       72.00000000      63.00000000      58.50000000
        63    1       74.25000000      65.25000000      58.50000000
        64    1       72.00000000      65.25000000      60.75000000
        65    1       74.25000000      63.00000000      60.75000000
        66    1       76.50000000      63.00000000      58.50000000
        67    1       76.50000000      65.25000000      60.75000000
        68    1       78.75000000      63.00000000      60.75000000
        69    1       56.25000000      67.50000000      60.75000000
        70    1       58.50000000      67.50000000      58.50000000
        71    1       60.75000000      69.75000000      58.50000000
        72    1       58.50000000      69.75000000      60.75000000
        73    1       60.75000000      67.50000000      60.75000000
        74    1       63.00000000      67.50000000      58.50000000
        75    1       65.25000000      69.75000000      58.50000000
        76    1       63.00000000      69.75000000      60.75000000
        77    1       65.25000000      67.50000000      60.75000000
        78    1       67.50000000      67.50000000      58.50000000
        79    1       69.75000000      69.75000000      58.50000000
        80    1       67.50000000      69.75000000      60.75000000
        81    2       69.75000000      67.50000000      60.75000000
        82    2       72.00000000      67.50000000      58.50000000
        83    2       74.25000000      69.75000000      58.50000000
        84    2       72.00000000      69.75000000      60.75000000
        85    2       74.25000000      67.50000000      60.75000000
        86    2       76.50000000      67.50000000      58.50000000
        87    2       76.50000000      69.75000000      60.75000000
        88    2       78.75000000      67.50000000      60.75000000
        89    2       56.25000000      72.00000000      60.75000000
        90    2       58.50000000      72.00000000      58.50000000
        91    2       60.75000000      74.25000000      58.50000000
        92    2       58.50000000      74.25000000      60.75000000
        93    2       60.75000000      72.00000000      60.75000000
        94    2       63.00000000      72.00000000      58.50000000
        95    2       65.25000000      74.25000000      58.50000000
        96    2       63.00000000      74.25000000      60.75000000
        97    2       65.25000000      72.00000000      60.75000000
        98    2       67.50000000      72.00000000      58.50000000
        99    2       69.75000000      74.25000000      58.50000000
       100    2       67.50000000      74.25000000      60.75000000
       101    3       69.75000000      72.00000000      60.75000000
       102    3       72.00000000      72.00000000      58.50000000
       103    3       74.25000000      74.25000000      58.50000000
       104    3       72.00000000      74.25000000      60.75000000
       105    3       74.25000000      72.00000000      60.75000000
       106    3       76.50000000      72.00000000      58.50000000
       107    3       76.50000000      74.25000000      60.75000000
       108    3       78.75000000      72.00000000      60.75000000
       109    3       60.75000000      76.50000000      60.75000000
       110    3       63.00000000      76.50000000      58.50000000
       111    3       63.00000000      78.75000000      60.75000000
       112    3       65.25000000      76.50000000      60.75000000
       113    3       67.50000000      76.50000000      58.50000000
       114    3       67.50000000      78.75000000      60.75000000
       115    3       69.75000000      76.50000000      60.75000000
       116    3       72.00000000      76.50000000      58.50000000
       117    3       72.00000000      78.75000000      60.75000000
       118    3       74.25000000      76.50000000      60.75000000
       119    3       60.75000000      56.25000000      63.00000000
       120    3       65.25000000      56.25000000      63.00000000
       121    4       63.00000000      56.25000000      65.25000000
       122    4       65.25000000      54.00000000      65.25000000
       123    4       69.75000000      56.25000000      63.00000000
       124    4       67.50000000      56.25000000      65.25000000
       125    4       69.75000000      54.00000000      65.25000000
       126    4       74.25000000      56.25000000      63.00000000
       127    4       72.00000000      56.25000000      65.25000000
       128    4       56.25000000      60.75000000      63.00000000
       129    4       58.50000000      58.50000000      63.00000000
       130    4       60.75000000      60.75000000      63.00000000
       131    4       58.50000000      60.75000000      65.25000000
       132    4       60.75000000      58.50000000      65.25000000
       133    4       63.00000000      58.50000000      63.00000000
       134    4       65.25000000      60.75000000      63.00000000
       135    4       63.00000000      60.75000000      65.25000000
       136    4       65.25000000      58.50000000      65.25000000
       137    4       67.50000000      58.50000000      63.00000000
       138    4       69.75000000      60.75000000      63.00000000
       139    4       67.50000000      60.75000000      65.25000000
       140    4       69.75000000      58.50000000      65.25000000
       141    1       72.00000000      58.50000000      63.00000000
       142    1       74.25000000      60.75000000      63.00000000
       143    1       72.00000000      60.75000000      65.25000000
       144    1       74.25000000      58.50000000      65.25000000
       145    1       76.50000000      58.50000000      63.00000000
       146    1       78.75000000      60.75000000      63.00000000
       147    1       76.50000000      60.75000000      65.25000000
       148    1       56.25000000      65.25000000      63.00000000
       149    1       54.00000000      65.25000000      65.25000000
       150    1       56.25000000      63.00000000      65.25000000
       151    1       58.50000000      63.00000000      63.00000000
       152    1       60.75000000      65.25000000      63.00000000
       153    1       58.50000000      65.25000000      65.25000000
       154    1       60.75000000      63.00000000      65.25000000
       155    1       63.00000000      63.00000000      63.00000000
       156    1       65.25000000      65.25000000      63.00000000
       157    1       63.00000000      65.25000000      65.25000000
       158    1       65.25000000      63.00000000      65.25000000
       159    1       67.50000000      63.00000000      63.00000000
       160    1       69.75000000      65.25000000      63.00000000
       161    2       67.50000000      65.25000000      65.25000000
       162    2       69.75000000      63.00000000      65.25000000
       163    2       72.00000000      63.00000000      63.00000000
       164    2       74.25000000      65.25000000      63.00000000
       165    2       72.00000000      65.25000000      65.25000000
       166    2       74.25000000      63.00000000      65.25000000
       167    2       76.50000000      63.00000000      63.00000000
       168    2       78.75000000      65.25000000      63.00000000
       169    2       76.50000000      65.25000000      65.25000000
       170    2       78.75000000      63.00000000      65.25000000
       171    2       81.00000000      65.25000000      65.25000000
       172    2       56.25000000      69.75000000      63.00000000
       173    2       54.00000000      69.75000000      65.25000000
       174    2       56.25000000      67.50000000      65.25000000
       175    2       58.50000000      67.50000000      63.00000000
       176    2       60.75000000      69.75000000      63.00000000
       177    2       58.50000000      69.75000000      65.25000000
       178    2       60.75000000      67.50000000      65.25000000
       179    2       63.00000000      67.50000000      63.00000000
       180    2       65.25000000      69.75000000      63.00000000
       181    2       63.00000000      69.75000000      65.25000000
       182    2       65.25000000      67.50000000      65.25000000
       183    2       67.50000000      67.50000000      63.00000000
       184    2       69.75000000      69.75000000      63.00000000
       185    2       67.50000000      69.75000000      65.25000000
       186    2       69.75000000      67.50000000      65.25000000
       187    2       72.00000000      67.50000000      63.00000000
       188    2       74.25000000      69.75000000      63.00000000
       189    2       72.00000000      69.75000000      65.25000000
       190    2       74.25000000      67.50000000      65.25000000
       191    2       76.50000000      67.50000000      63.00000000
       192    2       78.75000000      69.75000000      63.00000000
       193    2       76.50000000      69.75000000      65.25000000
       194    2       78.75000000      67.50000000      65.25000000
       195    2       81.00000000      69.75000000      65.25000000
       196    2       56.25000000      74.25000000      63.00000000
       197    2       56.25000000      72.00000000      65.25000000
       198    2       58.50000000      72.00000000      63.00000000
       199    2       60.75000000      74.25000000      63.00000000
       200    2       58.50000000      74.25000000      65.25000000
       201    3       60.75000000      72.00000000      65.25000000
       202    3       63.00000000      72.00000000      63.00000000
       203    3       65.25000000      74.25000000      63.00000000
       204    3       63.00000000      74.25000000      65.25000000
       205    3       65.25000000      72.00000000      65.25000000
       206    3       67.50000000      72.00000000      63.00000000
       207    3       69.75000000      74.25000000      63.00000000
       208    3       67.50000000      74.25000000      65.25000000
       209    3       69.75000000      72.00000000      65.25000000
       210    3       72.00000000      72.00000000      63.00000000
       211    3       74.25000000      74.25000000      63.00000000
       212    3       72.00000000      74.25000000      65.25000000
       213    3       74.25000000      72.00000000      65.25000000
       214    3       76.50000000      72.00000000      63.00000000
       215    3       78.75000000      74.25000000      63.00000000
       216    3       76.50000000      74.25000000      65.25000000
       217    3       78.75000000      72.00000000      65.25000000
       218    3       58.50000000      76.50000000      63.00000000
       219    3       60.75000000      78.75000000      63.00000000
       220    3       60.75000000      76.50000000      65.25000000
       221    3       63.00000000      76.50000000      63.00000000
       222    3       65.25000000      78.75000000      63.00000000
       223    3       63.00000000      78.75000000      65.25000000
       224    3       65.25000000      76.50000000      65.25000000
       225    3       67.50000000      76.50000000      63.00000000
       226    3       69.75000000      78.75000000      63.00000000
       227    3       67.50000000      78.75000000      65.25000000
       228    3       69.75000000      76.50000000      65.25000000
       229    3       72.00000000      76.50000000      63.00000000
       230    3       74.25000000      78.75000000      63.00000000
       231    3       72.00000000      78.75000000      65.25000000
       232    3       74.25000000      76.50000000      65.25000000
       233    3       76.50000000      76.50000000      63.00000000
       234    3       65.25000000      81.00000000      65.25000000
       235    3       69.75000000      81.00000000      65.25000000
       236    3       60.75000000      56.25000000      67.50000000
       237    3       65.25000000      56.25000000      67.50000000
       238    3       63.00000000      56.25000000      69.75000000
       239    3       65.25000000      54.00000000      69.75000000
       240    3       67.50000000      54.00000000      67.50000000
       241    4       69.75000000      56.25000000      67.50000000
       242    4       67.50000000      56.25000000      69.75000000
       243    4       69.75000000      54.00000000      69.75000000
       244    4       74.25000000      56.25000000      67.50000000
       245    4       72.00000000      56.25000000      69.75000000
       246    4       56.25000000      60.75000000      67.50000000
       247    4       58.50000000      58.50000000      67.50000000
       248    4       60.75000000      60.75000000      67.50000000
       249    4       58.50000000      60.75000000      69.75000000
       250    4       60.75000000      58.50000000      69.75000000
       251    4       63.00000000      58.50000000      67.50000000
       252    4       65.25000000      60.75000000      67.50000000
       253    4       63.00000000      60.75000000      69.75000000
       254    4       65.25000000      58.50000000      69.75000000
       255    4       67.50000000      58.50000000      67.50000000
       256    4       69.75000000      60.75000000      67.50000000
       257    4       67.50000000      60.75000000      69.75000000
       258    4       69.75000000      58.50000000      69.75000000
       259    4       72.00000000      58.50000000      67.50000000
       260    4       74.25000000      60.75000000      67.50000000
       261    4       72.00000000      60.75000000      69.75000000
       262    4       74.25000000      58.50000000      69.75000000
       263    4       76.50000000      58.50000000      67.50000000
       264    4       78.75000000      60.75000000      67.50000000
       265    4       76.50000000      60.75000000      69.75000000
       266    4       56.25000000      65.25000000      67.50000000
       267    4       54.00000000      65.25000000      69.75000000
       268    4       56.25000000      63.00000000      69.75000000
       269    4       58.50000000      63.00000000      67.50000000
       270    4       60.75000000      65.25000000      67.50000000
       271    4       58.50000000      65.25000000      69.75000000
       272    4       60.75000000      63.00000000      69.75000000
       273    4       63.00000000      63.00000000      67.50000000
       274    4       65.25000000      65.25000000      67.50000000
       275    4       63.00000000      65.25000000      69.75000000
       276    4       65.25000000      63.00000000      69.75000000
       277    4       67.50000000      63.00000000      67.50000000
       278    4       69.75000000      65.25000000      67.50000000
       279    4       67.50000000      65.25000000      69.75000000
       280    4       69.75000000      63.00000000      69.75000000
       281    1       72.00000000      63.00000000      67.50000000
       282    1       74.25000000      65.25000000      67.50000000
       283    1       72.00000000      65.25000000      69.75000000
       284    1       74.25000000      63.00000000      69.75000000
       285    1       76.50000000      63.00000000      67.50000000
       286    1       78.75000000      65.25000000      67.50000000
       287    1       76.50000000      65.25000000      69.75000000
       288    1       78.75000000      63.00000000      69.75000000
       289    1       81.00000000      65.25000000      69.75000000
       290    1       54.00000000      67.50000000      67.50000000
       291    1       56.25000000      69.75000000      67.50000000
       292    1       54.00000000      69.75000000      69.75000000
       293    1       56.25000000      67.50000000      69.75000000
       294    1       58.50000000      67.50000000      67.50000000
       295    1       60.75000000      69.75000000      67.50000000
       296    1       58.50000000      69.75000000      69.75000000
       297    1       60.75000000      67.50000000      69.75000000
       298    1       63.00000000      67.50000000      67.50000000
       299    1       65.25000000      69.75000000      67.50000000
       300    1       63.00000000      69.75000000      69.75000000
       301    1       65.25000000      67.50000000      69.75000000
       302    1       67.50000000      67.50000000      67.50000000
       303    1       69.75000000      69.75000000      67.50000000
       304    1       67.50000000      69.75000000      69.75000000
       305    1       69.75000000      67.50000000      69.75000000
       306    1       72.00000000      67.50000000      67.50000000
       307    1       74.25000000      69.75000000      67.50000000
       308    1       72.00000000      69.75000000      69.75000000
       309    1       74.25000000      67.50000000      69.75000000
       310    1       76.50000000      67.50000000      67.50000000
       311    1       78.75000000      69.75000000      67.50000000
       312    1       76.50000000      69.75000000      69.75000000
       313    1       78.75000000      67.50000000      69.75000000
       314    1       81.00000000      67.50000000      67.50000000
       315    1       81.00000000      69.75000000      69.75000000
       316    1       56.25000000      74.25000000      67.50000000
       317    1       56.25000000      72.00000000      69.75000000
       318    1       58.50000000      72.00000000      67.50000000
       319    1       60.75000000      74.25000000      67.50000000
       320    1       58.50000000      74.25000000      69.75000000
       321    2       60.75000000      72.00000000      69.75000000
       322    2       63.00000000      72.00000000      67.50000000
       323    2       65.25000000      74.25000000      67.50000000
       324    2       63.00000000      74.25000000      69.75000000
       325    2       65.25000000      72.00000000      69.75000000
       326    2       67.50000000      72.00000000      67.50000000
       327    2       69.75000000      74.25000000      67.50000000
       328    2       67.50000000      74.25000000      69.75000000
       329    2       69.75000000      72.00000000      69.75000000
       330    2       72.00000000      72.00000000      67.50000000
       331    2       74.25000000      74.25000000      67.50000000
       332    2       72.00000000      74.25000000      69.75000000
       333    2       74.25000000      72.00000000      69.75000000
       334    2       76.50000000      72.00000000      67.50000000
       335    2       78.75000000      74.25000000      67.50000000
       336    2       76.50000000      74.25000000      69.75000000
       337    2       78.75000000      72.00000000      69.75000000
       338    2       58.50000000      76.50000000      67.50000000
       339    2       60.75000000      78.75000000      67.50000000
       340    2       60.75000000      76.50000000      69.75000000
       341    2       63.00000000      76.50000000      67.50000000
       342    2       65.25000000      78.75000000      67.50000000
       343    2       63.00000000      78.75000000      69.75000000
       344    2       65.25000000      76.50000000      69.75000000
       345    2       67.50000000      76.50000000      67.50000000
       346    2       69.75000000      78.75000000      67.50000000
       347    2       67.50000000      78.75000000      69.75000000
       348    2       69.75000000      76.50000000      69.75000000
       349    2       72.00000000      76.50000000      67.50000000
       350    2       74.25000000      78.75000000      67.50000000
       351    2       72.00000000      78.75000000      69.75000000
       352    2       74.25000000      76.50000000      69.75000000
       353    2       76.50000000      76.50000000      67.50000000
       354    2       65.25000000      81.00000000      69.75000000
       355    2       67.50000000      81.00000000      67.50000000
       356    2       69.75000000      81.00000000      69.75000000
       357    2       60.75000000      56.25000000      72.00000000
       358    2       65.25000000      56.25000000      72.00000000
       359    2       63.00000000      56.25000000      74.25000000
       360    2       69.75000000      56.25000000      72.00000000
       361    3       67.50000000      56.25000000      74.25000000
       362    3       74.25000000      56.25000000      72.00000000
       363    3       72.00000000      56.25000000      74.25000000
       364    3       56.25000000      60.75000000      72.00000000
       365    3       58.50000000      58.50000000      72.00000000
       366    3       60.75000000      60.75000000      72.00000000
       367    3       58.50000000      60.75000000      74.25000000
       368    3       60.75000000      58.50000000      74.25000000
       369    3       63.00000000      58.50000000      72.00000000
       370    3       65.25000000      60.75000000      72.00000000
       371    3       63.00000000      60.75000000      74.25000000
       372    3       65.25000000      58.50000000      74.25000000
       373    3       67.50000000      58.50000000      72.00000000
       374    3       69.75000000      60.75000000      72.00000000
       375    3       67.50000000      60.75000000      74.25000000
       376    3       69.75000000      58.50000000      74.25000000
       377    3       72.00000000      58.50000000      72.00000000
       378    3       74.25000000      60.75000000      72.00000000
       379    3       72.00000000      60.75000000      74.25000000
       380    3       74.25000000      58.50000000      74.25000000
       381    3       76.50000000      58.50000000      72.00000000
       382    3       78.75000000      60.75000000      72.00000000
       383    3       76.50000000      60.75000000      74.25000000
       384    3       56.25000000      65.25000000      72.00000000
       385    3       56.25000000      63.00000000      74.25000000
       386    3       58.50000000      63.00000000      72.00000000
       387    3       60.75000000      65.25000000      72.00000000
       388    3       58.50000000      65.25000000      74.25000000
       389    3       60.75000000      63.00000000      74.25000000
       390    3       63.00000000      63.00000000      72.00000000
       391    3       65.25000000      65.25000000      72.00000000
       392    3       63.00000000      65.25000000      74.25000000
       393    3       65.25000000      63.00000000      74.25000000
       394    3       67.50000000      63.00000000      72.00000000
       395    3       69.75000000      65.25000000      72.00000000
       396    3       67.50000000      65.25000000      74.25000000
       397    3       69.75000000      63.00000000      74.25000000
       398    3       72.00000000      63.00000000      72.00000000
       399    3       74.25000000      65.25000000      72.00000000
       400    3       72.00000000      65.25000000      74.25000000
       401    4       74.25000000      63.00000000      74.25000000
       402    4       76.50000000      63.00000000      72.00000000
       403    4       78.75000000      65.25000000      72.00000000
       404    4       76.50000000      65.25000000      74.25000000
       405    4       78.75000000      63.00000000      74.25000000
       406    4       56.25000000      69.75000000      72.00000000
       407    4       56.25000000      67.50000000      74.25000000
       408    4       58.50000000      67.50000000      72.00000000
       409    4       60.75000000      69.75000000      72.00000000
       410    4       58.50000000      69.75000000      74.25000000
       411    4       60.75000000      67.50000000      74.25000000
       412    4       63.00000000      67.50000000      72.00000000
       413    4       65.25000000      69.75000000      72.00000000
       414    4       63.00000000      69.75000000      74.25000000
       415    4       65.25000000      67.50000000      74.25000000
       416    4       67.50000000      67.50000000      72.00000000
       417    4       69.75000000      69.75000000      72.00000000
       418    4       67.50000000      69.75000000      74.25000000
       419    4       69.75000000      67.50000000      74.25000000
       420    4       72.00000000      67.50000000      72.00000000
       421    1       74.25000000      69.75000000      72.00000000
       422    1       72.00000000      69.75000000      74.25000000
       423    1       74.25000000      67.50000000      74.25000000
       424    1       76.50000000      67.50000000      72.00000000
       425    1       78.75000000      69.75000000      72.00000000
       426    1       76.50000000      69.75000000      74.25000000
       427    1       78.75000000      67.50000000      74.25000000
       428    1       56.25000000      74.25000000      72.00000000
       429    1       56.25000000      72.00000000      74.25000000
       430    1       58.50000000      72.00000000      72.00000000
       431    1       60.75000000      74.25000000      72.00000000
       432    1       58.50000000      74.25000000      74.25000000
       433    1       60.75000000      72.00000000      74.25000000
       434    1       63.00000000      72.00000000      72.00000000
       435    1       65.25000000      74.25000000      72.00000000
       436    1       63.00000000      74.25000000      74.25000000
       437    1       65.25000000      72.00000000      74.25000000