 # Fcc Al oriented X=[100] Y=[010] Z=[001].
 
         500  atoms
           3  atom types
 
      0.00000000      21.20000000  xlo xhi
      0.00000000      21.20000000  ylo yhi
      0.00000000      21.20000000  zlo zhi
 
Atoms
 
         1    2        0.00000000       0.00000000       0.00000000
         2    3        2.12000000       2.12000000       0.00000000
         3    1        0.00000000       2.12000000       2.12000000
         4    1        2.12000000       0.00000000       2.12000000
         5    1        4.24000000       0.00000000       0.00000000
         6    1        6.36000000       2.12000000       0.00000000
         7    1        4.24000000       2.12000000       2.12000000
         8    1        6.36000000       0.00000000       2.12000000
         9    1        8.48000000       0.00000000       0.00000000
        10    1       10.60000000       2.12000000       0.00000000
        11    1        8.48000000       2.12000000       2.12000000
        12    1       10.60000000       0.00000000       2.12000000
        13    1       12.72000000       0.00000000       0.00000000
        14    1       14.84000000       2.12000000       0.00000000
        15    1       12.72000000       2.12000000       2.12000000
        16    1       14.84000000       0.00000000       2.12000000
        17    1       16.96000000       0.00000000       0.00000000
        18    1       19.08000000       2.12000000       0.00000000
        19    1       16.96000000       2.12000000       2.12000000
        20    1       19.08000000       0.00000000       2.12000000
        21    1        0.00000000       4.24000000       0.00000000
        22    1        2.12000000       6.36000000       0.00000000
        23    1        0.00000000       6.36000000       2.12000000
        24    1        2.12000000       4.24000000       2.12000000
        25    1        4.24000000       4.24000000       0.00000000
        26    1        6.36000000       6.36000000       0.00000000
        27    1        4.24000000       6.36000000       2.12000000
        28    1        6.36000000       4.24000000       2.12000000
        29    1        8.48000000       4.24000000       0.00000000
        30    1       10.60000000       6.36000000       0.00000000
        31    1        8.48000000       6.36000000       2.12000000
        32    1       10.60000000       4.24000000       2.12000000
        33    1       12.72000000       4.24000000       0.00000000
        34    1       14.84000000       6.36000000       0.00000000
        35    1       12.72000000       6.36000000       2.12000000
        36    1       14.84000000       4.24000000       2.12000000
        37    1       16.96000000       4.24000000       0.00000000
        38    1       19.08000000       6.36000000       0.00000000
        39    1       16.96000000       6.36000000       2.12000000
        40    1       19.08000000       4.24000000       2.12000000
        41    1        0.00000000       8.48000000       0.00000000
        42    1        2.12000000      10.60000000       0.00000000
        43    1        0.00000000      10.60000000       2.12000000
        44    1        2.12000000       8.48000000       2.12000000
        45    1        4.24000000       8.48000000       0.00000000
        46    1        6.36000000      10.60000000       0.00000000
        47    1        4.24000000      10.60000000       2.12000000
        48    1        6.36000000       8.48000000       2.12000000
        49    1        8.48000000       8.48000000       0.00000000
        50    1       10.60000000      10.60000000       0.00000000
        51    1        8.48000000      10.60000000       2.12000000
        52    1       10.60000000       8.48000000       2.12000000
        53    1       12.72000000       8.48000000       0.00000000
        54    1       14.84000000      10.60000000       0.00000000
        55    1       12.72000000      10.60000000       2.12000000
        56    1       14.84000000       8.48000000       2.12000000
        57    1       16.96000000       8.48000000       0.00000000
        58    1       19.08000000      10.60000000       0.00000000
        59    1       16.96000000      10.60000000       2.12000000
        60    1       19.08000000       8.48000000       2.12000000
        61    1        0.00000000      12.72000000       0.00000000
        62    1        2.12000000      14.84000000       0.00000000
        63    1        0.00000000      14.84000000       2.12000000
        64    1        2.12000000      12.72000000       2.12000000
        65    1        4.24000000      12.72000000       0.00000000
        66    1        6.36000000      14.84000000       0.00000000
        67    1        4.24000000      14.84000000       2.12000000
        68    1        6.36000000      12.72000000       2.12000000
        69    1        8.48000000      12.72000000       0.00000000
        70    1       10.60000000      14.84000000       0.00000000
        71    1        8.48000000      14.84000000       2.12000000
        72    1       10.60000000      12.72000000       2.12000000
        73    1       12.72000000      12.72000000       0.00000000
        74    1       14.84000000      14.84000000       0.00000000
        75    1       12.72000000      14.84000000       2.12000000
        76    1       14.84000000      12.72000000       2.12000000
        77    1       16.96000000      12.72000000       0.00000000
        78    1       19.08000000      14.84000000       0.00000000
        79    1       16.96000000      14.84000000       2.12000000
        80    1       19.08000000      12.72000000       2.12000000
        81    1        0.00000000      16.96000000       0.00000000
        82    1        2.12000000      19.08000000       0.00000000
        83    1        0.00000000      19.08000000       2.12000000
        84    1        2.12000000      16.96000000       2.12000000
        85    1        4.24000000      16.96000000       0.00000000
        86    1        6.36000000      19.08000000       0.00000000
        87    1        4.24000000      19.08000000       2.12000000
        88    1        6.36000000      16.96000000       2.12000000
        89    1        8.48000000      16.96000000       0.00000000
        90    1       10.60000000      19.08000000       0.00000000
        91    1        8.48000000      19.08000000       2.12000000
        92    1       10.60000000      16.96000000       2.12000000
        93    1       12.72000000      16.96000000       0.00000000
        94    1       14.84000000      19.08000000       0.00000000
        95    1       12.72000000      19.08000000       2.12000000
        96    1       14.84000000      16.96000000       2.12000000
        97    1       16.96000000      16.96000000       0.00000000
        98    1       19.08000000      19.08000000       0.00000000
        99    1       16.96000000      19.08000000       2.12000000
       100    1       19.08000000      16.96000000       2.12000000
       101    1        0.00000000       0.00000000       4.24000000
       102    1        2.12000000       2.12000000       4.24000000
       103    1        0.00000000       2.12000000       6.36000000
       104    1        2.12000000       0.00000000       6.36000000
       105    1        4.24000000       0.00000000       4.24000000
       106    1        6.36000000       2.12000000       4.24000000
       107    1        4.24000000       2.12000000       6.36000000
       108    1        6.36000000       0.00000000       6.36000000
       109    1        8.48000000       0.00000000       4.24000000
       110    1       10.60000000       2.12000000       4.24000000
       111    1        8.48000000       2.12000000       6.36000000
       112    1       10.60000000       0.00000000       6.36000000
       113    1       12.72000000       0.00000000       4.24000000
       114    1       14.84000000       2.12000000       4.24000000
       115    1       12.72000000       2.12000000       6.36000000
       116    1       14.84000000       0.00000000       6.36000000
       117    1       16.96000000       0.00000000       4.24000000
       118    1       19.08000000       2.12000000       4.24000000
       119    1       16.96000000       2.12000000       6.36000000
       120    1       19.08000000       0.00000000       6.36000000
       121    1        0.00000000       4.24000000       4.24000000
       122    1        2.12000000       6.36000000       4.24000000
       123    1        0.00000000       6.36000000       6.36000000
       124    1        2.12000000       4.24000000       6.36000000
       125    1        4.24000000       4.24000000       4.24000000
       126    1        6.36000000       6.36000000       4.24000000
       127    1        4.24000000       6.36000000       6.36000000
       128    1        6.36000000       4.24000000       6.36000000
       129    1        8.48000000       4.24000000       4.24000000
       130    1       10.60000000       6.36000000       4.24000000
       131    1        8.48000000       6.36000000       6.36000000
       132    1       10.60000000       4.24000000       6.36000000
       133    1       12.72000000       4.24000000       4.24000000
       134    1       14.84000000       6.36000000       4.24000000
       135    1       12.72000000       6.36000000       6.36000000
       136    1       14.84000000       4.24000000       6.36000000
       137    1       16.96000000       4.24000000       4.24000000
       138    1       19.08000000       6.36000000       4.24000000
       139    1       16.96000000       6.36000000       6.36000000
       140    1       19.08000000       4.24000000       6.36000000
       141    1        0.00000000       8.48000000       4.24000000
       142    1        2.12000000      10.60000000       4.24000000
       143    1        0.00000000      10.60000000       6.36000000
       144    1        2.12000000       8.48000000       6.36000000
       145    1        4.24000000       8.48000000       4.24000000
       146    1        6.36000000      10.60000000       4.24000000
       147    1        4.24000000      10.60000000       6.36000000
       148    1        6.36000000       8.48000000       6.36000000
       149    1        8.48000000       8.48000000       4.24000000
       150    1       10.60000000      10.60000000       4.24000000
       151    1        8.48000000      10.60000000       6.36000000
       152    1       10.60000000       8.48000000       6.36000000
       153    1       12.72000000       8.48000000       4.24000000
       154    1       14.84000000      10.60000000       4.24000000
       155    1       12.72000000      10.60000000       6.36000000
       156    1       14.84000000       8.48000000       6.36000000
       157    1       16.96000000       8.48000000       4.24000000
       158    1       19.08000000      10.60000000       4.24000000
       159    1       16.96000000      10.60000000       6.36000000
       160    1       19.08000000       8.48000000       6.36000000
       161    1        0.00000000      12.72000000       4.24000000
       162    1        2.12000000      14.84000000       4.24000000
       163    1        0.00000000      14.84000000       6.36000000
       164    1        2.12000000      12.72000000       6.36000000
       165    1        4.24000000      12.72000000       4.24000000
       166    1        6.36000000      14.84000000       4.24000000
       167    1        4.24000000      14.84000000       6.36000000
       168    1        6.36000000      12.72000000       6.36000000
       169    1        8.48000000      12.72000000       4.24000000
       170    1       10.60000000      14.84000000       4.24000000
       171    1        8.48000000      14.84000000       6.36000000
       172    1       10.60000000      12.72000000       6.36000000
       173    1       12.72000000      12.72000000       4.24000000
       174    1       14.84000000      14.84000000       4.24000000
       175    1       12.72000000      14.84000000       6.36000000
       176    1       14.84000000      12.72000000       6.36000000
       177    1       16.96000000      12.72000000       4.24000000
       178    1       19.08000000      14.84000000       4.24000000
       179    1       16.96000000      14.84000000       6.36000000
       180    1       19.08000000      12.72000000       6.36000000
       181    1        0.00000000      16.96000000       4.24000000
       182    1        2.12000000      19.08000000       4.24000000
       183    1        0.00000000      19.08000000       6.36000000
       184    1        2.12000000      16.96000000       6.36000000
       185    1        4.24000000      16.96000000       4.24000000
       186    1        6.36000000      19.08000000       4.24000000
       187    1        4.24000000      19.08000000       6.36000000
       188    1        6.36000000      16.96000000       6.36000000
       189    1        8.48000000      16.96000000       4.24000000
       190    1       10.60000000      19.08000000       4.24000000
       191    1        8.48000000      19.08000000       6.36000000
       192    1       10.60000000      16.96000000       6.36000000
       193    1       12.72000000      16.96000000       4.24000000
       194    1       14.84000000      19.08000000       4.24000000
       195    1       12.72000000      19.08000000       6.36000000
       196    1       14.84000000      16.96000000       6.36000000
       197    1       16.96000000      16.96000000       4.24000000
       198    1       19.08000000      19.08000000       4.24000000
       199    1       16.96000000      19.08000000       6.36000000
       200    1       19.08000000      16.96000000       6.36000000
       201    1        0.00000000       0.00000000       8.48000000
       202    1        2.12000000       2.12000000       8.48000000
       203    1        0.00000000       2.12000000      10.60000000
       204    1        2.12000000       0.00000000      10.60000000
       205    1        4.24000000       0.00000000       8.48000000
       206    1        6.36000000       2.12000000       8.48000000
       207    1        4.24000000       2.12000000      10.60000000
       208    1        6.36000000       0.00000000      10.60000000
       209    1        8.48000000       0.00000000       8.48000000
       210    1       10.60000000       2.12000000       8.48000000
       211    1        8.48000000       2.12000000      10.60000000
       212    1       10.60000000       0.00000000      10.60000000
       213    1       12.72000000       0.00000000       8.48000000
       214    1       14.84000000       2.12000000       8.48000000
       215    1       12.72000000       2.12000000      10.60000000
       216    1       14.84000000       0.00000000      10.60000000
       217    1       16.96000000       0.00000000       8.48000000
       218    1       19.08000000       2.12000000       8.48000000
       219    1       16.96000000       2.12000000      10.60000000
       220    1       19.08000000       0.00000000      10.60000000
       221    1        0.00000000       4.24000000       8.48000000
       222    1        2.12000000       6.36000000       8.48000000
       223    1        0.00000000       6.36000000      10.60000000
       224    1        2.12000000       4.24000000      10.60000000
       225    1        4.24000000       4.24000000       8.48000000
       226    1        6.36000000       6.36000000       8.48000000
       227    1        4.24000000       6.36000000      10.60000000
       228    1        6.36000000       4.24000000      10.60000000
       229    1        8.48000000       4.24000000       8.48000000
       230    1       10.60000000       6.36000000       8.48000000
       231    1        8.48000000       6.36000000      10.60000000
       232    1       10.60000000       4.24000000      10.60000000
       233    1       12.72000000       4.24000000       8.48000000
       234    1       14.84000000       6.36000000       8.48000000
       235    1       12.72000000       6.36000000      10.60000000
       236    1       14.84000000       4.24000000      10.60000000
       237    1       16.96000000       4.24000000       8.48000000
       238    1       19.08000000       6.36000000       8.48000000
       239    1       16.96000000       6.36000000      10.60000000
       240    1       19.08000000       4.24000000      10.60000000
       241    1        0.00000000       8.48000000       8.48000000
       242    1        2.12000000      10.60000000       8.48000000
       243    1        0.00000000      10.60000000      10.60000000
       244    1        2.12000000       8.48000000      10.60000000
       245    1        4.24000000       8.48000000       8.48000000
       246    1        6.36000000      10.60000000       8.48000000
       247    1        4.24000000      10.60000000      10.60000000
       248    1        6.36000000       8.48000000      10.60000000
       249    1        8.48000000       8.48000000       8.48000000
       250    1       10.60000000      10.60000000       8.48000000
       251    1        8.48000000      10.60000000      10.60000000
       252    1       10.60000000       8.48000000      10.60000000
       253    1       12.72000000       8.48000000       8.48000000
       254    1       14.84000000      10.60000000       8.48000000
       255    1       12.72000000      10.60000000      10.60000000
       256    1       14.84000000       8.48000000      10.60000000
       257    1       16.96000000       8.48000000       8.48000000
       258    1       19.08000000      10.60000000       8.48000000
       259    1       16.96000000      10.60000000      10.60000000
       260    1       19.08000000       8.48000000      10.60000000
       261    1        0.00000000      12.72000000       8.48000000
       262    1        2.12000000      14.84000000       8.48000000
       263    1        0.00000000      14.84000000      10.60000000
       264    1        2.12000000      12.72000000      10.60000000
       265    1        4.24000000      12.72000000       8.48000000
       266    1        6.36000000      14.84000000       8.48000000
       267    1        4.24000000      14.84000000      10.60000000
       268    1        6.36000000      12.72000000      10.60000000
       269    1        8.48000000      12.72000000       8.48000000
       270    1       10.60000000      14.84000000       8.48000000
       271    1        8.48000000      14.84000000      10.60000000
       272    1       10.60000000      12.72000000      10.60000000
       273    1       12.72000000      12.72000000       8.48000000
       274    1       14.84000000      14.84000000       8.48000000
       275    1       12.72000000      14.84000000      10.60000000
       276    1       14.84000000      12.72000000      10.60000000
       277    1       16.96000000      12.72000000       8.48000000
       278    1       19.08000000      14.84000000       8.48000000
       279    1       16.96000000      14.84000000      10.60000000
       280    1       19.08000000      12.72000000      10.60000000
       281    1        0.00000000      16.96000000       8.48000000
       282    1        2.12000000      19.08000000       8.48000000
       283    1        0.00000000      19.08000000      10.60000000
       284    1        2.12000000      16.96000000      10.60000000
       285    1        4.24000000      16.96000000       8.48000000
       286    1        6.36000000      19.08000000       8.48000000
       287    1        4.24000000      19.08000000      10.60000000
       288    1        6.36000000      16.96000000      10.60000000
       289    1        8.48000000      16.96000000       8.48000000
       290    1       10.60000000      19.08000000       8.48000000
       291    1        8.48000000      19.08000000      10.60000000
       292    1       10.60000000      16.96000000      10.60000000
       293    1       12.72000000      16.96000000       8.48000000
       294    1       14.84000000      19.08000000       8.48000000
       295    1       12.72000000      19.08000000      10.60000000
       296    1       14.84000000      16.96000000      10.60000000
       297    1       16.96000000      16.96000000       8.48000000
       298    1       19.08000000      19.08000000       8.48000000
       299    1       16.96000000      19.08000000      10.60000000
       300    1       19.08000000      16.96000000      10.60000000
       301    1        0.00000000       0.00000000      12.72000000
       302    1        2.12000000       2.12000000      12.72000000
       303    1        0.00000000       2.12000000      14.84000000
       304    1        2.12000000       0.00000000      14.84000000
       305    1        4.24000000       0.00000000      12.72000000
       306    1        6.36000000       2.12000000      12.72000000
       307    1        4.24000000       2.12000000      14.84000000
       308    1        6.36000000       0.00000000      14.84000000
       309    1        8.48000000       0.00000000      12.72000000
       310    1       10.60000000       2.12000000      12.72000000
       311    1        8.48000000       2.12000000      14.84000000
       312    1       10.60000000       0.00000000      14.84000000
       313    1       12.72000000       0.00000000      12.72000000
       314    1       14.84000000       2.12000000      12.72000000
       315    1       12.72000000       2.12000000      14.84000000
       316    1       14.84000000       0.00000000      14.84000000
       317    1       16.96000000       0.00000000      12.72000000
       318    1       19.08000000       2.12000000      12.72000000
       319    1       16.96000000       2.12000000      14.84000000
       320    1       19.08000000       0.00000000      14.84000000
       321    1        0.00000000       4.24000000      12.72000000
       322    1        2.12000000       6.36000000      12.72000000
       323    1        0.00000000       6.36000000      14.84000000
       324    1        2.12000000       4.24000000      14.84000000
       325    1        4.24000000       4.24000000      12.72000000
       326    1        6.36000000       6.36000000      12.72000000
       327    1        4.24000000       6.36000000      14.84000000
       328    1        6.36000000       4.24000000      14.84000000
       329    1        8.48000000       4.24000000      12.72000000
       330    1       10.60000000       6.36000000      12.72000000
       331    1        8.48000000       6.36000000      14.84000000
       332    1       10.60000000       4.24000000      14.84000000
       333    1       12.72000000       4.24000000      12.72000000
       334    1       14.84000000       6.36000000      12.72000000
       335    1       12.72000000       6.36000000      14.84000000
       336    1       14.84000000       4.24000000      14.84000000
       337    1       16.96000000       4.24000000      12.72000000
       338    1       19.08000000       6.36000000      12.72000000
       339    1       16.96000000       6.36000000      14.84000000
       340    1       19.08000000       4.24000000      14.84000000
       341    1        0.00000000       8.48000000      12.72000000
       342    1        2.12000000      10.60000000      12.72000000
       343    1        0.00000000      10.60000000      14.84000000
       344    1        2.12000000       8.48000000      14.84000000
       345    1        4.24000000       8.48000000      12.72000000
       346    1        6.36000000      10.60000000      12.72000000
       347    1        4.24000000      10.60000000      14.84000000
       348    1        6.36000000       8.48000000      14.84000000
       349    1        8.48000000       8.48000000      12.72000000
       350    1       10.60000000      10.60000000      12.72000000
       351    1        8.48000000      10.60000000      14.84000000
       352    1       10.60000000       8.48000000      14.84000000
       353    1       12.72000000       8.48000000      12.72000000
       354    1       14.84000000      10.60000000      12.72000000
       355    1       12.72000000      10.60000000      14.84000000
       356    1       14.84000000       8.48000000      14.84000000
       357    1       16.96000000       8.48000000      12.72000000
       358    1       19.08000000      10.60000000      12.72000000
       359    1       16.96000000      10.60000000      14.84000000
       360    1       19.08000000       8.48000000      14.84000000
       361    1        0.00000000      12.72000000      12.72000000
       362    1        2.12000000      14.84000000      12.72000000
       363    1        0.00000000      14.84000000      14.84000000
       364    1        2.12000000      12.72000000      14.84000000
       365    1        4.24000000      12.72000000      12.72000000
       366    1        6.36000000      14.84000000      12.72000000
       367    1        4.24000000      14.84000000      14.84000000
       368    1        6.36000000      12.72000000      14.84000000
       369    1        8.48000000      12.72000000      12.72000000
       370    1       10.60000000      14.84000000      12.72000000
       371    1        8.48000000      14.84000000      14.84000000
       372    1       10.60000000      12.72000000      14.84000000
       373    1       12.72000000      12.72000000      12.72000000
       374    1       14.84000000      14.84000000      12.72000000
       375    1       12.72000000      14.84000000      14.84000000
       376    1       14.84000000      12.72000000      14.84000000
       377    1       16.96000000      12.72000000      12.72000000
       378    1       19.08000000      14.84000000      12.72000000
       379    1       16.96000000      14.84000000      14.84000000
       380    1       19.08000000      12.72000000      14.84000000
       381    1        0.00000000      16.96000000      12.72000000
       382    1        2.12000000      19.08000000      12.72000000
       383    1        0.00000000      19.08000000      14.84000000
       384    1        2.12000000      16.96000000      14.84000000
       385    1        4.24000000      16.96000000      12.72000000
       386    1        6.36000000      19.08000000      12.72000000
       387    1        4.24000000      19.08000000      14.84000000
       388    1        6.36000000      16.96000000      14.84000000
       389    1        8.48000000      16.96000000      12.72000000
       390    1       10.60000000      19.08000000      12.72000000
       391    1        8.48000000      19.08000000      14.84000000
       392    1       10.60000000      16.96000000      14.84000000
       393    1       12.72000000      16.96000000      12.72000000
       394    1       14.84000000      19.08000000      12.72000000
       395    1       12.72000000      19.08000000      14.84000000
       396    1       14.84000000      16.96000000      14.84000000
       397    1       16.96000000      16.96000000      12.72000000
       398    1       19.08000000      19.08000000      12.72000000
       399    1       16.96000000      19.08000000      14.84000000
       400    1       19.08000000      16.96000000      14.84000000
       401    1        0.00000000       0.00000000      16.96000000
       402    1        2.12000000       2.12000000      16.96000000
       403    1        0.00000000       2.12000000      19.08000000
       404    1        2.12000000       0.00000000      19.08000000
       405    1        4.24000000       0.00000000      16.96000000
       406    1        6.36000000       2.12000000      16.96000000
       407    1        4.24000000       2.12000000      19.08000000
       408    1        6.36000000       0.00000000      19.08000000
       409    1        8.48000000       0.00000000      16.96000000
       410    1       10.60000000       2.12000000      16.96000000
       411    1        8.48000000       2.12000000      19.08000000
       412    1       10.60000000       0.00000000      19.08000000
       413    1       12.72000000       0.00000000      16.96000000
       414    1       14.84000000       2.12000000      16.96000000
       415    1       12.72000000       2.12000000      19.08000000
       416    1       14.84000000       0.00000000      19.08000000
       417    1       16.96000000       0.00000000      16.96000000
       418    1       19.08000000       2.12000000      16.96000000
       419    1       16.96000000       2.12000000      19.08000000
       420    1       19.08000000       0.00000000      19.08000000
       421    1        0.00000000       4.24000000      16.96000000
       422    1        2.12000000       6.36000000      16.96000000
       423    1        0.00000000       6.36000000      19.08000000
       424    1        2.12000000       4.24000000      19.08000000
       425    1        4.24000000       4.24000000      16.96000000
       426    1        6.36000000       6.36000000      16.96000000
       427    1        4.24000000       6.36000000      19.08000000
       428    1        6.36000000       4.24000000      19.08000000
       429    1        8.48000000       4.24000000      16.96000000
       430    1       10.60000000       6.36000000      16.96000000
       431    1        8.48000000       6.36000000      19.08000000
       432    1       10.60000000       4.24000000      19.08000000
       433    1       12.72000000       4.24000000      16.96000000
       434    1       14.84000000       6.36000000      16.96000000
       435    1       12.72000000       6.36000000      19.08000000
       436    1       14.84000000       4.24000000      19.08000000
       437    1       16.96000000       4.24000000      16.96000000