 LAMMPS data file written by crystalmaker2lammps.f90
        8640 atoms
        5760 bonds
        2880 angles
           0 dihedrals
           0 impropers
           2 atom types
           1 bond types
           1 angle types
           0 dihedral types
           0 improper types
 -0.75694412       44.165558     xlo xhi
  0.38127473       47.066074     ylo yhi
  0.17900842       44.193867     zlo zhi

 Masses

           1   1.0079401    
           2   15.999400    

 Atoms

           1           1           2 -0.84759998       0.0000000       2.5933406       4.1263928    
           2           1           1  0.42379999       0.0000000       3.5091562       3.8468986    
           3           1           1  0.42379999       0.0000000       2.6345632       5.0829678    
           4           2           2 -0.84759998       0.0000000       2.5933406       11.462218    
           5           2           1  0.42379999       0.0000000       3.5091562       11.182723    
           6           2           1  0.42379999       0.0000000       2.6345632       12.418793    
           7           3           2 -0.84759998       0.0000000       2.5933406       18.797997    
           8           3           1  0.42379999       0.0000000       3.5091562       18.518503    
           9           3           1  0.42379999       0.0000000       2.6345632       19.754618    
          10           4           2 -0.84759998       0.0000000       2.5933406       26.133821    
          11           4           1  0.42379999       0.0000000       3.5091562       25.854328    
          12           4           1  0.42379999       0.0000000       2.6345632       27.090397    
          13           5           2 -0.84759998       0.0000000       2.5933406       33.469646    
          14           5           1  0.42379999       0.0000000       3.5091562       33.190151    
          15           5           1  0.42379999       0.0000000       2.6345632       34.426220    
          16           6           2 -0.84759998       0.0000000       2.5933406       40.805428    
          17           6           1  0.42379999       0.0000000       3.5091562       40.525932    
          18           6           1  0.42379999       0.0000000       2.6345632       41.762047    
          19           7           2 -0.84759998       0.0000000       10.374156       4.1263928    
          20           7           1  0.42379999       0.0000000       11.289926       3.8468986    
          21           7           1  0.42379999       0.0000000       10.415379       5.0829678    
          22           8           2 -0.84759998       0.0000000       10.374156       11.462218    
          23           8           1  0.42379999       0.0000000       11.289926       11.182723    
          24           8           1  0.42379999       0.0000000       10.415379       12.418793    
          25           9           2 -0.84759998       0.0000000       10.374156       18.797997    
          26           9           1  0.42379999       0.0000000       11.289926       18.518503    
          27           9           1  0.42379999       0.0000000       10.415379       19.754618    
          28          10           2 -0.84759998       0.0000000       10.374156       26.133821    
          29          10           1  0.42379999       0.0000000       11.289926       25.854328    
          30          10           1  0.42379999       0.0000000       10.415379       27.090397    
          31          11           2 -0.84759998       0.0000000       10.374156       33.469646    
          32          11           1  0.42379999       0.0000000       11.289926       33.190151    
          33          11           1  0.42379999       0.0000000       10.415379       34.426220    
          34          12           2 -0.84759998       0.0000000       10.374156       40.805428    
          35          12           1  0.42379999       0.0000000       11.289926       40.525932    
          36          12           1  0.42379999       0.0000000       10.415379       41.762047    
          37          13           2 -0.84759998       0.0000000       18.154924       4.1263928    
          38          13           1  0.42379999       0.0000000       19.070740       3.8468986    
          39          13           1  0.42379999       0.0000000       18.196194       5.0829678    
          40          14           2 -0.84759998       0.0000000       18.154924       11.462218    
          41          14           1  0.42379999       0.0000000       19.070740       11.182723    
          42          14           1  0.42379999       0.0000000       18.196194       12.418793    
          43          15           2 -0.84759998       0.0000000       18.154924       18.797997    
          44          15           1  0.42379999       0.0000000       19.070740       18.518503    
          45          15           1  0.42379999       0.0000000       18.196194       19.754618    
          46          16           2 -0.84759998       0.0000000       18.154924       26.133821    
          47          16           1  0.42379999       0.0000000       19.070740       25.854328    
          48          16           1  0.42379999       0.0000000       18.196194       27.090397    
          49          17           2 -0.84759998       0.0000000       18.154924       33.469646    
          50          17           1  0.42379999       0.0000000       19.070740       33.190151    
          51          17           1  0.42379999       0.0000000       18.196194       34.426220    
          52          18           2 -0.84759998       0.0000000       18.154924       40.805428    
          53          18           1  0.42379999       0.0000000       19.070740       40.525932    
          54          18           1  0.42379999       0.0000000       18.196194       41.762047    
          55          19           2 -0.84759998       0.0000000       25.935740       4.1263928    
          56          19           1  0.42379999       0.0000000       26.851557       3.8468986    
          57          19           1  0.42379999       0.0000000       25.976963       5.0829678    
          58          20           2 -0.84759998       0.0000000       25.935740       11.462218    
          59          20           1  0.42379999       0.0000000       26.851557       11.182723    
          60          20           1  0.42379999       0.0000000       25.976963       12.418793    
          61          21           2 -0.84759998       0.0000000       25.935740       18.797997    
          62          21           1  0.42379999       0.0000000       26.851557       18.518503    
          63          21           1  0.42379999       0.0000000       25.976963       19.754618    
          64          22           2 -0.84759998       0.0000000       25.935740       26.133821    
          65          22           1  0.42379999       0.0000000       26.851557       25.854328    
          66          22           1  0.42379999       0.0000000       25.976963       27.090397    
          67          23           2 -0.84759998       0.0000000       25.935740       33.469646    
          68          23           1  0.42379999       0.0000000       26.851557       33.190151    
          69          23           1  0.42379999       0.0000000       25.976963       34.426220    
          70          24           2 -0.84759998       0.0000000       25.935740       40.805428    
          71          24           1  0.42379999       0.0000000       26.851557       40.525932    
          72          24           1  0.42379999       0.0000000       25.976963       41.762047    
          73          25           2 -0.84759998       0.0000000       33.716557       4.1263928    
          74          25           1  0.42379999       0.0000000       34.632324       3.8468986    
          75          25           1  0.42379999       0.0000000       33.757778       5.0829678    
          76          26           2 -0.84759998       0.0000000       33.716557       11.462218    
          77          26           1  0.42379999       0.0000000       34.632324       11.182723    
          78          26           1  0.42379999       0.0000000       33.757778       12.418793    
          79          27           2 -0.84759998       0.0000000       33.716557       18.797997    
          80          27           1  0.42379999       0.0000000       34.632324       18.518503    
          81          27           1  0.42379999       0.0000000       33.757778       19.754618    
          82          28           2 -0.84759998       0.0000000       33.716557       26.133821    
          83          28           1  0.42379999       0.0000000       34.632324       25.854328    
          84          28           1  0.42379999       0.0000000       33.757778       27.090397    
          85          29           2 -0.84759998       0.0000000       33.716557       33.469646    
          86          29           1  0.42379999       0.0000000       34.632324       33.190151    
          87          29           1  0.42379999       0.0000000       33.757778       34.426220    
          88          30           2 -0.84759998       0.0000000       33.716557       40.805428    
          89          30           1  0.42379999       0.0000000       34.632324       40.525932    
          90          30           1  0.42379999       0.0000000       33.757778       41.762047    
          91          31           2 -0.84759998       0.0000000       41.497326       4.1263928    
          92          31           1  0.42379999       0.0000000       42.413139       3.8468986    
          93          31           1  0.42379999       0.0000000       41.538593       5.0829678    
          94          32           2 -0.84759998       0.0000000       41.497326       11.462218    
          95          32           1  0.42379999       0.0000000       42.413139       11.182723    
          96          32           1  0.42379999       0.0000000       41.538593       12.418793    
          97          33           2 -0.84759998       0.0000000       41.497326       18.797997    
          98          33           1  0.42379999       0.0000000       42.413139       18.518503    
          99          33           1  0.42379999       0.0000000       41.538593       19.754618    
         100          34           2 -0.84759998       0.0000000       41.497326       26.133821    
         101          34           1  0.42379999       0.0000000       42.413139       25.854328    
         102          34           1  0.42379999       0.0000000       41.538593       27.090397    
         103          35           2 -0.84759998       0.0000000       41.497326       33.469646    
         104          35           1  0.42379999       0.0000000       42.413139       33.190151    
         105          35           1  0.42379999       0.0000000       41.538593       34.426220    
         106          36           2 -0.84759998       0.0000000       41.497326       40.805428    
         107          36           1  0.42379999       0.0000000       42.413139       40.525932    
         108          36           1  0.42379999       0.0000000       41.538593       41.762047    
         109          37           2 -0.84759998       4.4922500       2.5933406       4.1263928    
         110          37           1  0.42379999       4.4922500       3.5091562       3.8468986    
         111          37           1  0.42379999       4.4922500       2.6345632       5.0829678    
         112          38           2 -0.84759998       4.4922500       2.5933406       11.462218    
         113          38           1  0.42379999       4.4922500       3.5091562       11.182723    
         114          38           1  0.42379999       4.4922500       2.6345632       12.418793    
         115          39           2 -0.84759998       4.4922500       2.5933406       18.797997    
         116          39           1  0.42379999       4.4922500       3.5091562       18.518503    
         117          39           1  0.42379999       4.4922500       2.6345632       19.754618    
         118          40           2 -0.84759998       4.4922500       2.5933406       26.133821    
         119          40           1  0.42379999       4.4922500       3.5091562       25.854328    
         120          40           1  0.42379999       4.4922500       2.6345632       27.090397    
         121          41           2 -0.84759998       4.4922500       2.5933406       33.469646    
         122          41           1  0.42379999       4.4922500       3.5091562       33.190151    
         123          41           1  0.42379999       4.4922500       2.6345632       34.426220    
         124          42           2 -0.84759998       4.4922500       2.5933406       40.805428    
         125          42           1  0.42379999       4.4922500       3.5091562       40.525932    
         126          42           1  0.42379999       4.4922500       2.6345632       41.762047    
         127          43           2 -0.84759998       4.4922500       10.374156       4.1263928    
         128          43           1  0.42379999       4.4922500       11.289926       3.8468986    
         129          43           1  0.42379999       4.4922500       10.415379       5.0829678    
         130          44           2 -0.84759998       4.4922500       10.374156       11.462218    
         131          44           1  0.42379999       4.4922500       11.289926       11.182723    
         132          44           1  0.42379999       4.4922500       10.415379       12.418793    
         133          45           2 -0.84759998       4.4922500       10.374156       18.797997    
         134          45           1  0.42379999       4.4922500       11.289926       18.518503    
         135          45           1  0.42379999       4.4922500       10.415379       19.754618    
         136          46           2 -0.84759998       4.4922500       10.374156       26.133821    
         137          46           1  0.42379999       4.4922500       11.289926       25.854328    
         138          46           1  0.42379999       4.4922500       10.415379       27.090397    
         139          47           2 -0.84759998       4.4922500       10.374156       33.469646    
         140          47           1  0.42379999       4.4922500       11.289926       33.190151    
         141          47           1  0.42379999       4.4922500       10.415379       34.426220    
         142          48           2 -0.84759998       4.4922500       10.374156       40.805428    
         143          48           1  0.42379999       4.4922500       11.289926       40.525932    
         144          48           1  0.42379999       4.4922500       10.415379       41.762047    
         145          49           2 -0.84759998       4.4922500       18.154924       4.1263928    
         146          49           1  0.42379999       4.4922500       19.070740       3.8468986    
         147          49           1  0.42379999       4.4922500       18.196194       5.0829678    
         148          50           2 -0.84759998       4.4922500       18.154924       11.462218    
         149          50           1  0.42379999       4.4922500       19.070740       11.182723    
         150          50           1  0.42379999       4.4922500       18.196194       12.418793    
         151          51           2 -0.84759998       4.4922500       18.154924       18.797997    
         152          51           1  0.42379999       4.4922500       19.070740       18.518503    
         153          51           1  0.42379999       4.4922500       18.196194       19.754618    
         154          52           2 -0.84759998       4.4922500       18.154924       26.133821    
         155          52           1  0.42379999       4.4922500       19.070740       25.854328    
         156          52           1  0.42379999       4.4922500       18.196194       27.090397    
         157          53           2 -0.84759998       4.4922500       18.154924       33.469646    
         158          53           1  0.42379999       4.4922500       19.070740       33.190151    
         159          53           1  0.42379999       4.4922500       18.196194       34.426220    
         160          54           2 -0.84759998       4.4922500       18.154924       40.805428    
         161          54           1  0.42379999       4.4922500       19.070740       40.525932    
         162          54           1  0.42379999       4.4922500       18.196194       41.762047    
         163          55           2 -0.84759998       4.4922500       25.935740       4.1263928    
         164          55           1  0.42379999       4.4922500       26.851557       3.8468986    
         165          55           1  0.42379999       4.4922500       25.976963       5.0829678    
         166          56           2 -0.84759998       4.4922500       25.935740       11.462218    
         167          56           1  0.42379999       4.4922500       26.851557       11.182723    
         168          56           1  0.42379999       4.4922500       25.976963       12.418793    
         169          57           2 -0.84759998       4.4922500       25.935740       18.797997    
         170          57           1  0.42379999       4.4922500       26.851557       18.518503    
         171          57           1  0.42379999       4.4922500       25.976963       19.754618    
         172          58           2 -0.84759998       4.4922500       25.935740       26.133821    
         173          58           1  0.42379999       4.4922500       26.851557       25.854328    
         174          58           1  0.42379999       4.4922500       25.976963       27.090397    
         175          59           2 -0.84759998       4.4922500       25.935740       33.469646    
         176          59           1  0.42379999       4.4922500       26.851557       33.190151    
         177          59           1  0.42379999       4.4922500       25.976963       34.426220    
         178          60           2 -0.84759998       4.4922500       25.935740       40.805428    
         179          60           1  0.42379999       4.4922500       26.851557       40.525932    
         180          60           1  0.42379999       4.4922500       25.976963       41.762047    
         181          61           2 -0.84759998       4.4922500       33.716557       4.1263928    
         182          61           1  0.42379999       4.4922500       34.632324       3.8468986    
         183          61           1  0.42379999       4.4922500       33.757778       5.0829678    
         184          62           2 -0.84759998       4.4922500       33.716557       11.462218    
         185          62           1  0.42379999       4.4922500       34.632324       11.182723    
         186          62           1  0.42379999       4.4922500       33.757778       12.418793    
         187          63           2 -0.84759998       4.4922500       33.716557       18.797997    
         188          63           1  0.42379999       4.4922500       34.632324       18.518503    
         189          63           1  0.42379999       4.4922500       33.757778       19.754618    
         190          64           2 -0.84759998       4.4922500       33.716557       26.133821    
         191          64           1  0.42379999       4.4922500       34.632324       25.854328    
         192          64           1  0.42379999       4.4922500       33.757778       27.090397    
         193          65           2 -0.84759998       4.4922500       33.716557       33.469646    
         194          65           1  0.42379999       4.4922500       34.632324       33.190151    
         195          65           1  0.42379999       4.4922500       33.757778       34.426220    
         196          66           2 -0.84759998       4.4922500       33.716557       40.805428    
         197          66           1  0.42379999       4.4922500       34.632324       40.525932    
         198          66           1  0.42379999       4.4922500       33.757778       41.762047    
         199          67           2 -0.84759998       4.4922500       41.497326       4.1263928    
         200          67           1  0.42379999       4.4922500       42.413139       3.8468986    
         201          67           1  0.42379999       4.4922500       41.538593       5.0829678    
         202          68           2 -0.84759998       4.4922500       41.497326       11.462218    
         203          68           1  0.42379999       4.4922500       42.413139       11.182723    
         204          68           1  0.42379999       4.4922500       41.538593       12.418793    
         205          69           2 -0.84759998       4.4922500       41.497326       18.797997    
         206          69           1  0.42379999       4.4922500       42.413139       18.518503    
         207          69           1  0.42379999       4.4922500       41.538593       19.754618    
         208          70           2 -0.84759998       4.4922500       41.497326       26.133821    
         209          70           1  0.42379999       4.4922500       42.413139       25.854328    
         210          70           1  0.42379999       4.4922500       41.538593       27.090397    
         211          71           2 -0.84759998       4.4922500       41.497326       33.469646    
         212          71           1  0.42379999       4.4922500       42.413139       33.190151    
         213          71           1  0.42379999       4.4922500       41.538593       34.426220    
         214          72           2 -0.84759998       4.4922500       41.497326       40.805428    
         215          72           1  0.42379999       4.4922500       42.413139       40.525932    
         216          72           1  0.42379999       4.4922500       41.538593       41.762047    
         217          73           2 -0.84759998       8.9844999       2.5933406       4.1263928    
         218          73           1  0.42379999       8.9844999       3.5091562       3.8468986    
         219          73           1  0.42379999       8.9844999       2.6345632       5.0829678    
         220          74           2 -0.84759998       8.9844999       2.5933406       11.462218    
         221          74           1  0.42379999       8.9844999       3.5091562       11.182723    
         222          74           1  0.42379999       8.9844999       2.6345632       12.418793    
         223          75           2 -0.84759998       8.9844999       2.5933406       18.797997    
         224          75           1  0.42379999       8.9844999       3.5091562       18.518503    
         225          75           1  0.42379999       8.9844999       2.6345632       19.754618    
         226          76           2 -0.84759998       8.9844999       2.5933406       26.133821    
         227          76           1  0.42379999       8.9844999       3.5091562       25.854328    
         228          76           1  0.42379999       8.9844999       2.6345632       27.090397    
         229          77           2 -0.84759998       8.9844999       2.5933406       33.469646    
         230          77           1  0.42379999       8.9844999       3.5091562       33.190151    
         231          77           1  0.42379999       8.9844999       2.6345632       34.426220    
         232          78           2 -0.84759998       8.9844999       2.5933406       40.805428    
         233          78           1  0.42379999       8.9844999       3.5091562       40.525932    
         234          78           1  0.42379999       8.9844999       2.6345632       41.762047    
         235          79           2 -0.84759998       8.9844999       10.374156       4.1263928    
         236          79           1  0.42379999       8.9844999       11.289926       3.8468986    
         237          79           1  0.42379999       8.9844999       10.415379       5.0829678    
         238          80           2 -0.84759998       8.9844999       10.374156       11.462218    
         239          80           1  0.42379999       8.9844999       11.289926       11.182723    
         240          80           1  0.42379999       8.9844999       10.415379       12.418793    
         241          81           2 -0.84759998       8.9844999       10.374156       18.797997    
         242          81           1  0.42379999       8.9844999       11.289926       18.518503    
         243          81           1  0.42379999       8.9844999       10.415379       19.754618    
         244          82           2 -0.84759998       8.9844999       10.374156       26.133821    
         245          82           1  0.42379999       8.9844999       11.289926       25.854328    
         246          82           1  0.42379999       8.9844999       10.415379       27.090397    
         247          83           2 -0.84759998       8.9844999       10.374156       33.469646    
         248          83           1  0.42379999       8.9844999       11.289926       33.190151    
         249          83           1  0.42379999       8.9844999       10.415379       34.426220    
         250          84           2 -0.84759998       8.9844999       10.374156       40.805428    
         251          84           1  0.42379999       8.9844999       11.289926       40.525932    
         252          84           1  0.42379999       8.9844999       10.415379       41.762047    
         253          85           2 -0.84759998       8.9844999       18.154924       4.1263928    
         254          85           1  0.42379999       8.9844999       19.070740       3.8468986    
         255          85           1  0.42379999       8.9844999       18.196194       5.0829678    
         256          86           2 -0.84759998       8.9844999       18.154924       11.462218    
         257          86           1  0.42379999       8.9844999       19.070740       11.182723    
         258          86           1  0.42379999       8.9844999       18.196194       12.418793    
         259          87           2 -0.84759998       8.9844999       18.154924       18.797997    
         260          87           1  0.42379999       8.9844999       19.070740       18.518503    
         261          87           1  0.42379999       8.9844999       18.196194       19.754618    
         262          88           2 -0.84759998       8.9844999       18.154924       26.133821    
         263          88           1  0.42379999       8.9844999       19.070740       25.854328    
         264          88           1  0.42379999       8.9844999       18.196194       27.090397    
         265          89           2 -0.84759998       8.9844999       18.154924       33.469646    
         266          89           1  0.42379999       8.9844999       19.070740       33.190151    
         267          89           1  0.42379999       8.9844999       18.196194       34.426220    
         268          90           2 -0.84759998       8.9844999       18.154924       40.805428    
         269          90           1  0.42379999       8.9844999       19.070740       40.525932    
         270          90           1  0.42379999       8.9844999       18.196194       41.762047    
         271          91           2 -0.84759998       8.9844999       25.935740       4.1263928    
         272          91           1  0.42379999       8.9844999       26.851557       3.8468986    
         273          91           1  0.42379999       8.9844999       25.976963       5.0829678    
         274          92           2 -0.84759998       8.9844999       25.935740       11.462218    
         275          92           1  0.42379999       8.9844999       26.851557       11.182723    
         276          92           1  0.42379999       8.9844999       25.976963       12.418793    
         277          93           2 -0.84759998       8.9844999       25.935740       18.797997    
         278          93           1  0.42379999       8.9844999       26.851557       18.518503    
         279          93           1  0.42379999       8.9844999       25.976963       19.754618    
         280          94           2 -0.84759998       8.9844999       25.935740       26.133821    
         281          94           1  0.42379999       8.9844999       26.851557       25.854328    
         282          94           1  0.42379999       8.9844999       25.976963       27.090397    
         283          95           2 -0.84759998       8.9844999       25.935740       33.469646    
         284          95           1  0.42379999       8.9844999       26.851557       33.190151    
         285          95           1  0.42379999       8.9844999       25.976963       34.426220    
         286          96           2 -0.84759998       8.9844999       25.935740       40.805428    
         287          96           1  0.42379999       8.9844999       26.851557       40.525932    
         288          96           1  0.42379999       8.9844999       25.976963       41.762047    
         289          97           2 -0.84759998       8.9844999       33.716557       4.1263928    
         290          97           1  0.42379999       8.9844999       34.632324       3.8468986    
         291          97           1  0.42379999       8.9844999       33.757778       5.0829678    
         292          98           2 -0.84759998       8.9844999       33.716557       11.462218    